# vtk DataFile Version 2.0
Written using VisIt writer
ASCII
DATASET UNSTRUCTURED_GRID
POINTS 38 float
  0.000000000000e+00   0.000000000000e+00   0.000000000000e+00   6.000000000000e+00   0.000000000000e+00   0.000000000000e+00   1.100000000000e+01   5.000000000000e+00   0.000000000000e+00 
  1.100000000000e+01   9.000000000000e+00   0.000000000000e+00   4.000000000000e+00   9.000000000000e+00   0.000000000000e+00   4.000000000000e+00   7.000000000000e+00   0.000000000000e+00 
  0.000000000000e+00   7.000000000000e+00   0.000000000000e+00   8.000000000000e+00   9.000000000000e+00   0.000000000000e+00   6.000000000000e+00   8.000000000000e+00   0.000000000000e+00 
  7.250000000000e+00   1.250000000000e+00   0.000000000000e+00   5.803571224213e+00   5.892857074738e+00   0.000000000000e+00   5.246230125427e+00   7.007539749146e+00   0.000000000000e+00 
  0.000000000000e+00   3.500000000000e+00   0.000000000000e+00   8.507518768311e+00   6.061795234680e+00   0.000000000000e+00   4.755739688873e+00   4.185905456543e+00   0.000000000000e+00 
  8.500000000000e+00   2.500000000000e+00   0.000000000000e+00   7.221348285675e+00   6.988965988159e+00   0.000000000000e+00   4.377870082855e+00   5.592952728271e+00   0.000000000000e+00 
  2.813850879669e+00   4.418663978577e+00   0.000000000000e+00   3.000000000000e+00   0.000000000000e+00   0.000000000000e+00   4.206363677979e+00   3.045340538025e+00   0.000000000000e+00 
  3.285826206207e+00   1.648385763168e+00   0.000000000000e+00   0.000000000000e+00   1.750000000000e+00   0.000000000000e+00   4.500000000000e+00   5.888772606850e-01   0.000000000000e+00 
  1.949768304825e+00   2.846104860306e+00   0.000000000000e+00   1.623998522758e+00   1.087568998337e+00   0.000000000000e+00   6.126555919647e+00   2.823032617569e+00   0.000000000000e+00 
  5.695028781891e+00   1.428024888039e+00   0.000000000000e+00   1.100000000000e+01   7.000000000000e+00   0.000000000000e+00   9.500000000000e+00   8.000000000000e+00   0.000000000000e+00 
  9.953597068787e+00   6.000000000000e+00   0.000000000000e+00   9.155715942383e+00   4.279521465302e+00   0.000000000000e+00   7.242063522339e+00   4.592551231384e+00   0.000000000000e+00 
  7.394725799561e+00   3.259944200516e+00   0.000000000000e+00   2.000000000000e+00   7.000000000000e+00   0.000000000000e+00   1.000000000000e+00   5.265752792358e+00   0.000000000000e+00 
  2.941176891327e+00   5.877772331238e+00   0.000000000000e+00   1.240062952042e+00   3.963756084442e+00   0.000000000000e+00 
CELLS 59 236
3 24 12 22 
3 31 13 32 
3 27 20 21 
3 29 13 30 
3 4 8 7 
3 10 16 11 
3 23 27 21 
3 5 11 4 
3 30 31 2 
3 27 23 1 
3 18 36 35 
3 32 14 26 
3 4 11 8 
3 17 11 5 
3 35 34 6 
3 15 33 9 
3 29 28 3 
3 16 7 8 
3 17 14 10 
3 17 18 14 
3 32 33 31 
3 32 16 10 
3 16 13 29 
3 16 8 11 
3 11 17 10 
3 21 20 24 
3 19 21 25 
3 5 34 36 
3 24 20 18 
3 20 26 14 
3 22 25 24 
3 20 14 18 
3 19 1 23 
3 23 21 19 
3 19 25 0 
3 9 27 1 
3 37 18 35 
3 24 25 21 
3 0 25 22 
3 20 27 26 
3 27 9 26 
3 16 29 7 
3 30 28 29 
3 3 7 29 
3 31 30 13 
3 2 28 30 
3 16 32 13 
3 2 31 15 
3 14 32 10 
3 33 32 26 
3 9 33 26 
3 31 33 15 
3 6 12 35 
3 17 36 18 
3 37 35 12 
3 5 36 17 
3 35 36 34 
3 12 24 37 
3 18 37 24 
CELL_TYPES 59
5 
5 
5 
5 
5 
5 
5 
5 
5 
5 
5 
5 
5 
5 
5 
5 
5 
5 
5 
5 
5 
5 
5 
5 
5 
5 
5 
5 
5 
5 
5 
5 
5 
5 
5 
5 
5 
5 
5 
5 
5 
5 
5 
5 
5 
5 
5 
5 
5 
5 
5 
5 
5 
5 
5 
5 
5 
5 
5 
CELL_DATA 59
POINT_DATA 38
SCALARS nodeData float
LOOKUP_TABLE default
  0.000000000000e+00   0.000000000000e+00   0.000000000000e+00   0.000000000000e+00   0.000000000000e+00   0.000000000000e+00   0.000000000000e+00   0.000000000000e+00   0.000000000000e+00 
  0.000000000000e+00   0.000000000000e+00   0.000000000000e+00   0.000000000000e+00   0.000000000000e+00   0.000000000000e+00   0.000000000000e+00   0.000000000000e+00   0.000000000000e+00 
  0.000000000000e+00   0.000000000000e+00   0.000000000000e+00   0.000000000000e+00   0.000000000000e+00   0.000000000000e+00   0.000000000000e+00   0.000000000000e+00   0.000000000000e+00 
  0.000000000000e+00   0.000000000000e+00   0.000000000000e+00   0.000000000000e+00   0.000000000000e+00   0.000000000000e+00   0.000000000000e+00   0.000000000000e+00   0.000000000000e+00 
  0.000000000000e+00   0.000000000000e+00 

